#if 0
# 1-ionized oxygen data by Mashonkina (private communication).
#
# atomic_number in 1
# mass in u
# ionization_stage in 1
# all_levels.principal_quantum_number in 1
# all_levels.statistical_weight in 1
# all_levels.energy in eV
# all_levels.ionization_energy in eV
#endif
{
  atomic_number: 8.0,
  mass: 16.0,
  ionization_stage: 1.0,
  all_levels: {
    {
      term: "22P4S",
      limit_term: "NONE",
      ground_state_term: "22P4S",
      principal_quantum_number: 2.0,
      statistical_weight: 4.0,
      energy: 0.0,
      ionization_energy: 35.12111507716314,
    },
  },
}